
Host: 92fc9c75ec72

Timers On : Wed Nov 10 16:55:34 2021
Timers Off: Wed Nov 10 17:31:02 2021

Wall Time:     2128.19 seconds

                                                       Time (seconds)
Module                                       User      System        Wall        Calls

--------------------------------------------------------------------------------------

**************************************************************************************
