
Host: 19bdc0e26a91

Timers On : Tue Oct 26 16:21:08 2021
Timers Off: Tue Oct 26 16:24:48 2021

Wall Time:      220.89 seconds

                                                       Time (seconds)
Module                                       User      System        Wall        Calls

--------------------------------------------------------------------------------------

**************************************************************************************

Host: 19bdc0e26a91

Timers On : Tue Oct 26 16:25:51 2021
Timers Off: Tue Oct 26 16:26:33 2021

Wall Time:       41.61 seconds

                                                       Time (seconds)
Module                                       User      System        Wall        Calls

--------------------------------------------------------------------------------------

**************************************************************************************

Host: 19bdc0e26a91

Timers On : Tue Oct 26 16:26:49 2021
Timers Off: Tue Oct 26 16:27:21 2021

Wall Time:       32.33 seconds

                                                       Time (seconds)
Module                                       User      System        Wall        Calls

--------------------------------------------------------------------------------------

**************************************************************************************

Host: 19bdc0e26a91

Timers On : Tue Oct 26 16:29:54 2021
Timers Off: Tue Oct 26 16:32:18 2021

Wall Time:      144.10 seconds

                                                       Time (seconds)
Module                                       User      System        Wall        Calls

--------------------------------------------------------------------------------------

**************************************************************************************

Host: 19bdc0e26a91

Timers On : Tue Oct 26 16:32:24 2021
Timers Off: Tue Oct 26 16:38:06 2021

Wall Time:      342.19 seconds

                                                       Time (seconds)
Module                                       User      System        Wall        Calls

--------------------------------------------------------------------------------------

**************************************************************************************

Host: 19bdc0e26a91

Timers On : Tue Oct 26 16:38:11 2021
Timers Off: Wed Oct 27 11:01:27 2021

Wall Time:    66196.29 seconds

                                                       Time (seconds)
Module                                       User      System        Wall        Calls

--------------------------------------------------------------------------------------

**************************************************************************************

Host: 19bdc0e26a91

Timers On : Tue Nov  9 16:45:17 2021
Timers Off: Tue Nov  9 16:46:05 2021

Wall Time:       48.56 seconds

                                                       Time (seconds)
Module                                       User      System        Wall        Calls

--------------------------------------------------------------------------------------

**************************************************************************************

Host: 19bdc0e26a91

Timers On : Tue Nov  9 16:46:11 2021
Timers Off: Tue Nov  9 16:47:42 2021

Wall Time:       91.58 seconds

                                                       Time (seconds)
Module                                       User      System        Wall        Calls

--------------------------------------------------------------------------------------

**************************************************************************************

Host: 19bdc0e26a91

Timers On : Tue Nov  9 16:47:47 2021
Timers Off: Tue Nov  9 16:48:27 2021

Wall Time:       39.63 seconds

                                                       Time (seconds)
Module                                       User      System        Wall        Calls

--------------------------------------------------------------------------------------

**************************************************************************************

Host: 19bdc0e26a91

Timers On : Tue Nov  9 16:48:32 2021
Timers Off: Tue Nov  9 16:49:44 2021

Wall Time:       71.55 seconds

                                                       Time (seconds)
Module                                       User      System        Wall        Calls

--------------------------------------------------------------------------------------

**************************************************************************************

Host: 19bdc0e26a91

Timers On : Tue Nov  9 16:49:52 2021
Timers Off: Tue Nov  9 16:50:18 2021

Wall Time:       26.45 seconds

                                                       Time (seconds)
Module                                       User      System        Wall        Calls

--------------------------------------------------------------------------------------

**************************************************************************************

Host: 19bdc0e26a91

Timers On : Tue Nov  9 16:50:24 2021
Timers Off: Tue Nov  9 16:58:50 2021

Wall Time:      506.01 seconds

                                                       Time (seconds)
Module                                       User      System        Wall        Calls

--------------------------------------------------------------------------------------

**************************************************************************************

Host: 19bdc0e26a91

Timers On : Tue Nov  9 16:58:58 2021
Timers Off: Tue Nov  9 17:07:08 2021

Wall Time:      489.93 seconds

                                                       Time (seconds)
Module                                       User      System        Wall        Calls

--------------------------------------------------------------------------------------

**************************************************************************************

Host: 19bdc0e26a91

Timers On : Tue Nov  9 17:07:22 2021
Timers Off: Tue Nov  9 17:07:58 2021

Wall Time:       35.95 seconds

                                                       Time (seconds)
Module                                       User      System        Wall        Calls

--------------------------------------------------------------------------------------

**************************************************************************************

Host: 19bdc0e26a91

Timers On : Tue Nov  9 17:08:03 2021
Timers Off: Tue Nov  9 17:57:57 2021

Wall Time:     2993.09 seconds

                                                       Time (seconds)
Module                                       User      System        Wall        Calls

--------------------------------------------------------------------------------------

**************************************************************************************
