
Host: 32e2f5a9c6af

Timers On : Thu Sep  9 12:43:43 2021
Timers Off: Thu Sep  9 12:47:39 2021

Wall Time:      235.92 seconds

                                                       Time (seconds)
Module                                       User      System        Wall        Calls

--------------------------------------------------------------------------------------

**************************************************************************************

Host: 39159ca2e968

Timers On : Thu Sep  9 12:48:59 2021
Timers Off: Fri Sep 10 13:06:43 2021

Wall Time:    87463.61 seconds

                                                       Time (seconds)
Module                                       User      System        Wall        Calls

--------------------------------------------------------------------------------------

**************************************************************************************

Host: 39159ca2e968

Timers On : Tue Sep 14 17:05:50 2021
Timers Off: Wed Sep 15 14:12:01 2021

Wall Time:    75971.30 seconds

                                                       Time (seconds)
Module                                       User      System        Wall        Calls

--------------------------------------------------------------------------------------

**************************************************************************************

Host: 39159ca2e968

Timers On : Wed Sep 15 14:12:13 2021
Timers Off: Wed Sep 15 14:12:47 2021

Wall Time:       34.20 seconds

                                                       Time (seconds)
Module                                       User      System        Wall        Calls

--------------------------------------------------------------------------------------

**************************************************************************************

Host: 39159ca2e968

Timers On : Wed Sep 15 14:12:56 2021
Timers Off: Wed Sep 15 16:18:43 2021

Wall Time:     7546.89 seconds

                                                       Time (seconds)
Module                                       User      System        Wall        Calls

--------------------------------------------------------------------------------------

**************************************************************************************

Host: 838b2e1a4d07

Timers On : Wed Sep 29 13:43:54 2021
Timers Off: Wed Sep 29 13:46:32 2021

Wall Time:      158.44 seconds

                                                       Time (seconds)
Module                                       User      System        Wall        Calls

--------------------------------------------------------------------------------------

**************************************************************************************

Host: 838b2e1a4d07

Timers On : Wed Sep 29 14:02:02 2021
Timers Off: Wed Sep 29 14:05:03 2021

Wall Time:      181.15 seconds

                                                       Time (seconds)
Module                                       User      System        Wall        Calls

--------------------------------------------------------------------------------------

**************************************************************************************

Host: 838b2e1a4d07

Timers On : Wed Sep 29 13:46:38 2021
Timers Off: Wed Sep 29 16:30:36 2021

Wall Time:     9838.58 seconds

                                                       Time (seconds)
Module                                       User      System        Wall        Calls

--------------------------------------------------------------------------------------

**************************************************************************************

Host: 838b2e1a4d07

Timers On : Wed Sep 29 14:05:09 2021
Timers Off: Wed Sep 29 16:30:39 2021

Wall Time:     8730.11 seconds

                                                       Time (seconds)
Module                                       User      System        Wall        Calls

--------------------------------------------------------------------------------------

**************************************************************************************

Host: 477ed1da7541

Timers On : Wed Sep 29 17:03:55 2021
Timers Off: Wed Sep 29 17:04:22 2021

Wall Time:       27.26 seconds

                                                       Time (seconds)
Module                                       User      System        Wall        Calls

--------------------------------------------------------------------------------------

**************************************************************************************

Host: 477ed1da7541

Timers On : Wed Sep 29 17:17:51 2021
Timers Off: Wed Sep 29 17:18:32 2021

Wall Time:       40.77 seconds

                                                       Time (seconds)
Module                                       User      System        Wall        Calls

--------------------------------------------------------------------------------------

**************************************************************************************

Host: 477ed1da7541

Timers On : Wed Sep 29 17:19:35 2021
Timers Off: Wed Sep 29 17:20:21 2021

Wall Time:       46.62 seconds

                                                       Time (seconds)
Module                                       User      System        Wall        Calls

--------------------------------------------------------------------------------------

**************************************************************************************

Host: 477ed1da7541

Timers On : Wed Sep 29 18:15:29 2021
Timers Off: Wed Sep 29 18:15:55 2021

Wall Time:       25.91 seconds

                                                       Time (seconds)
Module                                       User      System        Wall        Calls

--------------------------------------------------------------------------------------

**************************************************************************************

Host: 477ed1da7541

Timers On : Wed Sep 29 16:34:31 2021
Timers Off: Wed Sep 29 18:16:29 2021

Wall Time:     6117.55 seconds

                                                       Time (seconds)
Module                                       User      System        Wall        Calls

--------------------------------------------------------------------------------------

**************************************************************************************

Host: 251988a4047e

Timers On : Wed Sep 29 18:18:56 2021
Timers Off: Wed Sep 29 18:19:28 2021

Wall Time:       31.83 seconds

                                                       Time (seconds)
Module                                       User      System        Wall        Calls

--------------------------------------------------------------------------------------

**************************************************************************************

Host: 251988a4047e

Timers On : Thu Sep 30 12:01:14 2021
Timers Off: Thu Sep 30 12:01:45 2021

Wall Time:       30.68 seconds

                                                       Time (seconds)
Module                                       User      System        Wall        Calls

--------------------------------------------------------------------------------------

**************************************************************************************

Host: cb680d2f3522

Timers On : Thu Oct 21 11:17:30 2021
Timers Off: Tue Oct 26 10:25:54 2021

Wall Time:   428903.16 seconds

                                                       Time (seconds)
Module                                       User      System        Wall        Calls

--------------------------------------------------------------------------------------

**************************************************************************************

Host: 92fc9c75ec72

Timers On : Tue Nov  9 17:59:57 2021
Timers Off: Wed Nov 10 14:13:01 2021

Wall Time:    72784.09 seconds

                                                       Time (seconds)
Module                                       User      System        Wall        Calls

--------------------------------------------------------------------------------------

**************************************************************************************

Host: 92fc9c75ec72

Timers On : Wed Nov 10 14:13:11 2021
Timers Off: Wed Nov 10 14:15:28 2021

Wall Time:      136.87 seconds

                                                       Time (seconds)
Module                                       User      System        Wall        Calls

--------------------------------------------------------------------------------------

**************************************************************************************

Host: 92fc9c75ec72

Timers On : Wed Nov 10 14:15:33 2021
Timers Off: Wed Nov 10 14:16:09 2021

Wall Time:       35.78 seconds

                                                       Time (seconds)
Module                                       User      System        Wall        Calls

--------------------------------------------------------------------------------------

**************************************************************************************

Host: 92fc9c75ec72

Timers On : Wed Nov 10 14:16:14 2021
Timers Off: Wed Nov 10 14:19:51 2021

Wall Time:      216.41 seconds

                                                       Time (seconds)
Module                                       User      System        Wall        Calls

--------------------------------------------------------------------------------------

**************************************************************************************

Host: 92fc9c75ec72

Timers On : Wed Nov 10 14:19:57 2021
Timers Off: Wed Nov 10 14:22:55 2021

Wall Time:      178.61 seconds

                                                       Time (seconds)
Module                                       User      System        Wall        Calls

--------------------------------------------------------------------------------------

**************************************************************************************

Host: 92fc9c75ec72

Timers On : Wed Nov 10 14:23:01 2021
Timers Off: Wed Nov 10 16:36:05 2021

Wall Time:     7983.95 seconds

                                                       Time (seconds)
Module                                       User      System        Wall        Calls

--------------------------------------------------------------------------------------

**************************************************************************************

Host: 92fc9c75ec72

Timers On : Wed Nov 10 16:36:10 2021
Timers Off: Wed Nov 10 16:42:42 2021

Wall Time:      391.22 seconds

                                                       Time (seconds)
Module                                       User      System        Wall        Calls

--------------------------------------------------------------------------------------

**************************************************************************************

Host: 92fc9c75ec72

Timers On : Wed Nov 10 16:42:51 2021
Timers Off: Wed Nov 10 16:50:55 2021

Wall Time:      484.00 seconds

                                                       Time (seconds)
Module                                       User      System        Wall        Calls

--------------------------------------------------------------------------------------

**************************************************************************************

Host: 92fc9c75ec72

Timers On : Wed Nov 10 16:51:00 2021
Timers Off: Wed Nov 10 16:56:07 2021

Wall Time:      307.08 seconds

                                                       Time (seconds)
Module                                       User      System        Wall        Calls

--------------------------------------------------------------------------------------

**************************************************************************************

Host: 92fc9c75ec72

Timers On : Wed Nov 10 16:56:15 2021
Timers Off: Wed Nov 10 17:04:04 2021

Wall Time:      469.56 seconds

                                                       Time (seconds)
Module                                       User      System        Wall        Calls

--------------------------------------------------------------------------------------

**************************************************************************************

Host: 92fc9c75ec72

Timers On : Wed Nov 10 17:04:10 2021
Timers Off: Wed Nov 10 17:15:45 2021

Wall Time:      694.77 seconds

                                                       Time (seconds)
Module                                       User      System        Wall        Calls

--------------------------------------------------------------------------------------

**************************************************************************************

Host: 92fc9c75ec72

Timers On : Wed Nov 10 17:15:50 2021
Timers Off: Wed Nov 10 17:19:30 2021

Wall Time:      219.27 seconds

                                                       Time (seconds)
Module                                       User      System        Wall        Calls

--------------------------------------------------------------------------------------

**************************************************************************************

Host: 92fc9c75ec72

Timers On : Wed Nov 10 17:19:35 2021
Timers Off: Wed Nov 10 17:21:00 2021

Wall Time:       85.10 seconds

                                                       Time (seconds)
Module                                       User      System        Wall        Calls

--------------------------------------------------------------------------------------

**************************************************************************************

Host: 92fc9c75ec72

Timers On : Wed Nov 10 17:21:07 2021
Timers Off: Wed Nov 10 17:28:17 2021

Wall Time:      429.35 seconds

                                                       Time (seconds)
Module                                       User      System        Wall        Calls

--------------------------------------------------------------------------------------

**************************************************************************************

Host: 92fc9c75ec72

Timers On : Wed Nov 10 17:28:22 2021
Timers Off: Fri Nov 12 15:14:27 2021

Wall Time:   164764.53 seconds

                                                       Time (seconds)
Module                                       User      System        Wall        Calls

--------------------------------------------------------------------------------------

**************************************************************************************

Host: 473bf2c3a7a2

Timers On : Fri Nov 12 15:37:44 2021
Timers Off: Fri Nov 12 15:39:51 2021

Wall Time:      126.52 seconds

                                                       Time (seconds)
Module                                       User      System        Wall        Calls

--------------------------------------------------------------------------------------

**************************************************************************************

Host: 2e71bdfeffa0

Timers On : Mon Jan 24 14:45:28 2022
Timers Off: Wed Jan 26 17:07:32 2022

Wall Time:   181324.62 seconds

                                                       Time (seconds)
Module                                       User      System        Wall        Calls

--------------------------------------------------------------------------------------

**************************************************************************************

Host: 0b452d3a4ea7

Timers On : Wed Jan 26 17:10:15 2022
Timers Off: Wed Jan 26 17:28:49 2022

Wall Time:     1113.94 seconds

                                                       Time (seconds)
Module                                       User      System        Wall        Calls

--------------------------------------------------------------------------------------

**************************************************************************************

Host: a85c473b1257

Timers On : Wed Jan 26 18:07:00 2022
Timers Off: Wed Jan 26 18:13:37 2022

Wall Time:      396.36 seconds

                                                       Time (seconds)
Module                                       User      System        Wall        Calls

--------------------------------------------------------------------------------------

**************************************************************************************

Host: a85c473b1257

Timers On : Wed Jan 26 18:09:52 2022
Timers Off: Wed Jan 26 18:13:39 2022

Wall Time:      227.86 seconds

                                                       Time (seconds)
Module                                       User      System        Wall        Calls

--------------------------------------------------------------------------------------

**************************************************************************************

Host: 54a13b0d1807

Timers On : Tue Feb  1 14:39:49 2022
Timers Off: Tue Feb  1 14:44:01 2022

Wall Time:      251.89 seconds

                                                       Time (seconds)
Module                                       User      System        Wall        Calls

--------------------------------------------------------------------------------------

**************************************************************************************

Host: 54a13b0d1807

Timers On : Tue Feb  1 14:44:07 2022
Timers Off: Tue Feb  1 14:44:18 2022

Wall Time:       11.62 seconds

                                                       Time (seconds)
Module                                       User      System        Wall        Calls

--------------------------------------------------------------------------------------

**************************************************************************************

Host: 54a13b0d1807

Timers On : Tue Feb  1 14:44:24 2022
Timers Off: Tue Feb  1 14:46:41 2022

Wall Time:      136.97 seconds

                                                       Time (seconds)
Module                                       User      System        Wall        Calls

--------------------------------------------------------------------------------------

**************************************************************************************

Host: 54a13b0d1807

Timers On : Tue Feb  1 14:46:47 2022
Timers Off: Tue Feb  1 14:49:27 2022

Wall Time:      160.14 seconds

                                                       Time (seconds)
Module                                       User      System        Wall        Calls

--------------------------------------------------------------------------------------

**************************************************************************************

Host: 54a13b0d1807

Timers On : Tue Feb  1 14:49:33 2022
Timers Off: Tue Feb  1 14:57:03 2022

Wall Time:      450.14 seconds

                                                       Time (seconds)
Module                                       User      System        Wall        Calls

--------------------------------------------------------------------------------------

**************************************************************************************

Host: 54a13b0d1807

Timers On : Tue Feb  1 14:57:09 2022
Timers Off: Tue Feb  1 14:59:08 2022

Wall Time:      118.60 seconds

                                                       Time (seconds)
Module                                       User      System        Wall        Calls

--------------------------------------------------------------------------------------

**************************************************************************************

Host: 54a13b0d1807

Timers On : Tue Feb  1 14:59:14 2022
Timers Off: Tue Feb  1 14:59:57 2022

Wall Time:       43.27 seconds

                                                       Time (seconds)
Module                                       User      System        Wall        Calls

--------------------------------------------------------------------------------------

**************************************************************************************

Host: 54a13b0d1807

Timers On : Tue Feb  1 15:00:03 2022
Timers Off: Tue Feb  1 15:04:42 2022

Wall Time:      278.33 seconds

                                                       Time (seconds)
Module                                       User      System        Wall        Calls

--------------------------------------------------------------------------------------

**************************************************************************************

Host: 54a13b0d1807

Timers On : Tue Feb  1 15:04:47 2022
Timers Off: Tue Feb  1 15:13:57 2022

Wall Time:      549.79 seconds

                                                       Time (seconds)
Module                                       User      System        Wall        Calls

--------------------------------------------------------------------------------------

**************************************************************************************

Host: 54a13b0d1807

Timers On : Tue Feb  1 15:14:03 2022
Timers Off: Tue Feb  1 15:17:14 2022

Wall Time:      191.48 seconds

                                                       Time (seconds)
Module                                       User      System        Wall        Calls

--------------------------------------------------------------------------------------

**************************************************************************************

Host: 54a13b0d1807

Timers On : Tue Feb  1 15:17:20 2022
Timers Off: Tue Feb  1 15:21:45 2022

Wall Time:      264.94 seconds

                                                       Time (seconds)
Module                                       User      System        Wall        Calls

--------------------------------------------------------------------------------------

**************************************************************************************

Host: 54a13b0d1807

Timers On : Tue Feb  1 15:21:50 2022
Timers Off: Tue Feb  1 15:23:57 2022

Wall Time:      126.41 seconds

                                                       Time (seconds)
Module                                       User      System        Wall        Calls

--------------------------------------------------------------------------------------

**************************************************************************************

Host: 54a13b0d1807

Timers On : Tue Feb  1 15:24:03 2022
Timers Off: Tue Feb  1 15:26:22 2022

Wall Time:      139.00 seconds

                                                       Time (seconds)
Module                                       User      System        Wall        Calls

--------------------------------------------------------------------------------------

**************************************************************************************

Host: 54a13b0d1807

Timers On : Tue Feb  1 15:26:28 2022
Timers Off: Tue Feb  1 15:34:13 2022

Wall Time:      465.45 seconds

                                                       Time (seconds)
Module                                       User      System        Wall        Calls

--------------------------------------------------------------------------------------

**************************************************************************************

Host: 54a13b0d1807

Timers On : Tue Feb  1 15:34:19 2022
Timers Off: Tue Feb  1 15:34:50 2022

Wall Time:       31.33 seconds

                                                       Time (seconds)
Module                                       User      System        Wall        Calls

--------------------------------------------------------------------------------------

**************************************************************************************
