
Host: a85c473b1257

Timers On : Wed Jan 26 18:08:53 2022
Timers Off: Wed Jan 26 18:09:19 2022

Wall Time:       25.69 seconds

                                                       Time (seconds)
Module                                       User      System        Wall        Calls

--------------------------------------------------------------------------------------

**************************************************************************************
